<?xml version="1.0" encoding="UTF-8"?>

<!-- generated on 2025-12-02 14:28:32 by Eclipse SUMO sumo Version 1.24.0
<sumoConfiguration xmlns:xsi="http://www.w3.org/2001/XMLSchema-instance" xsi:noNamespaceSchemaLocation="http://sumo.dlr.de/xsd/sumoConfiguration.xsd">

    <input>
        <net-file value="data/6l_4w_4p.net.xml"/>
        <route-files value="data/6l_4w_4p_mixed.rou.xml"/>
    </input>

    <output>
        <tripinfo-output value="data/6l_4w_4p_tripinfo.xml"/>
    </output>

    <time>
        <begin value="0"/>
        <end value="3600"/>
    </time>

    <processing>
        <lateral-resolution value="0.25"/>
    </processing>

</sumoConfiguration>
-->

<tripinfos xmlns:xsi="http://www.w3.org/2001/XMLSchema-instance" xsi:noNamespaceSchemaLocation="http://sumo.dlr.de/xsd/tripinfo_file.xsd">
    <tripinfo id="f_ets.0" depart="1.00" departLane="eb1_0" departPos="2.30" departPosLat="0.00" departSpeed="0.00" departDelay="1.00" arrival="34.00" arrivalLane="sb2_0" arrivalPos="161.47" arrivalPosLat="1.00" arrivalSpeed="12.20" duration="33.00" routeLength="367.83" waitingTime="0.00" waitingCount="0" stopTime="0.00" timeLoss="5.30" rerouteNo="0" devices="tripinfo_f_ets.0" vType="moto" speedFactor="1.01" vaporized=""/>
    <tripinfo id="f_etn.0" depart="0.00" departLane="eb1_1" departPos="2.30" departPosLat="0.00" departSpeed="0.00" departDelay="0.00" arrival="42.00" arrivalLane="nb2_2" arrivalPos="177.96" arrivalPosLat="-1.15" arrivalSpeed="10.66" duration="42.00" routeLength="399.79" waitingTime="0.00" waitingCount="0" stopTime="0.00" timeLoss="8.54" rerouteNo="0" devices="tripinfo_f_etn.0" vType="moto" speedFactor="0.89" vaporized=""/>
    <tripinfo id="f_ete.1" depart="8.00" departLane="eb1_0" departPos="2.30" departPosLat="0.00" departSpeed="0.00" departDelay="0.00" arrival="42.00" arrivalLane="eb2_1" arrivalPos="201.60" arrivalPosLat="-0.40" arrivalSpeed="12.04" duration="34.00" routeLength="426.11" waitingTime="0.00" waitingCount="0" stopTime="0.00" timeLoss="4.11" rerouteNo="0" devices="tripinfo_f_ete.1" vType="moto" speedFactor="1.03" vaporized=""/>
    <tripinfo id="f_ete.0" depart="0.00" departLane="eb1_2" departPos="2.30" departPosLat="0.00" departSpeed="0.00" departDelay="0.00" arrival="43.00" arrivalLane="eb2_1" arrivalPos="201.60" arrivalPosLat="1.15" arrivalSpeed="9.16" duration="43.00" routeLength="426.11" waitingTime="0.00" waitingCount="0" stopTime="0.00" timeLoss="5.86" rerouteNo="0" devices="tripinfo_f_ete.0" vType="moto" speedFactor="0.84" vaporized=""/>
    <tripinfo id="f_wts.0" depart="0.00" departLane="wb1_2" departPos="5.10" departPosLat="0.00" departSpeed="0.00" departDelay="0.00" arrival="45.00" arrivalLane="sb2_2" arrivalPos="161.47" arrivalPosLat="0.00" arrivalSpeed="14.01" duration="45.00" routeLength="382.50" waitingTime="9.00" waitingCount="1" stopTime="0.00" timeLoss="18.99" rerouteNo="0" devices="tripinfo_f_wts.0" vType="car" speedFactor="1.08" vaporized=""/>
    <tripinfo id="f_wtn.0" depart="0.00" departLane="wb1_1" departPos="5.10" departPosLat="0.00" departSpeed="0.00" departDelay="0.00" arrival="47.00" arrivalLane="nb2_0" arrivalPos="177.96" arrivalPosLat="0.00" arrivalSpeed="12.37" duration="47.00" routeLength="383.49" waitingTime="9.00" waitingCount="1" stopTime="0.00" timeLoss="16.79" rerouteNo="0" devices="tripinfo_f_wtn.0" vType="car" speedFactor="0.94" vaporized=""/>
    <tripinfo id="f_wtn.1" depart="14.00" departLane="wb1_0" departPos="2.30" departPosLat="0.00" departSpeed="0.00" departDelay="0.67" arrival="47.00" arrivalLane="nb2_1" arrivalPos="177.96" arrivalPosLat="-0.20" arrivalSpeed="15.97" duration="33.00" routeLength="386.29" waitingTime="0.00" waitingCount="0" stopTime="0.00" timeLoss="8.33" rerouteNo="0" devices="tripinfo_f_wtn.1" vType="moto" speedFactor="1.15" vaporized=""/>
    <tripinfo id="f_wtw.0" depart="0.00" departLane="wb1_0" departPos="5.10" departPosLat="0.00" departSpeed="0.00" departDelay="0.00" arrival="49.00" arrivalLane="wb2_1" arrivalPos="199.61" arrivalPosLat="0.00" arrivalSpeed="13.76" duration="49.00" routeLength="423.31" waitingTime="7.00" waitingCount="1" stopTime="0.00" timeLoss="17.98" rerouteNo="0" devices="tripinfo_f_wtw.0" vType="car" speedFactor="1.01" vaporized=""/>
    <tripinfo id="f_wtw.1" depart="8.00" departLane="wb1_0" departPos="2.30" departPosLat="0.00" departSpeed="0.00" departDelay="0.00" arrival="51.00" arrivalLane="wb2_1" arrivalPos="199.61" arrivalPosLat="1.05" arrivalSpeed="10.81" duration="43.00" routeLength="426.11" waitingTime="1.00" waitingCount="1" stopTime="0.00" timeLoss="7.31" rerouteNo="0" devices="tripinfo_f_wtw.1" vType="moto" speedFactor="0.87" vaporized=""/>
    <tripinfo id="f_wtw.2" depart="16.00" departLane="wb1_1" departPos="5.10" departPosLat="0.00" departSpeed="0.00" departDelay="0.00" arrival="53.00" arrivalLane="wb2_1" arrivalPos="199.61" arrivalPosLat="0.00" arrivalSpeed="13.60" duration="37.00" routeLength="423.31" waitingTime="0.00" waitingCount="0" stopTime="0.00" timeLoss="6.50" rerouteNo="0" devices="tripinfo_f_wtw.2" vType="car" speedFactor="1.02" vaporized=""/>
    <tripinfo id="f_wts.1" depart="20.00" departLane="wb1_1" departPos="2.30" departPosLat="0.00" departSpeed="0.00" departDelay="0.00" arrival="53.00" arrivalLane="sb2_2" arrivalPos="161.47" arrivalPosLat="-1.15" arrivalSpeed="12.34" duration="33.00" routeLength="385.30" waitingTime="0.00" waitingCount="0" stopTime="0.00" timeLoss="5.34" rerouteNo="0" devices="tripinfo_f_wts.1" vType="moto" speedFactor="1.03" vaporized=""/>
    <tripinfo id="f_wtn.2" depart="27.00" departLane="wb1_2" departPos="2.30" departPosLat="0.00" departSpeed="0.00" departDelay="0.33" arrival="56.00" arrivalLane="nb2_1" arrivalPos="177.96" arrivalPosLat="-0.30" arrivalSpeed="14.96" duration="29.00" routeLength="386.29" waitingTime="0.00" waitingCount="0" stopTime="0.00" timeLoss="4.77" rerouteNo="0" devices="tripinfo_f_wtn.2" vType="moto" speedFactor="1.17" vaporized=""/>
    <tripinfo id="f_wtw.3" depart="24.00" departLane="wb1_1" departPos="2.30" departPosLat="0.00" departSpeed="0.00" departDelay="0.00" arrival="64.00" arrivalLane="wb2_1" arrivalPos="199.61" arrivalPosLat="0.00" arrivalSpeed="11.92" duration="40.00" routeLength="426.11" waitingTime="0.00" waitingCount="0" stopTime="0.00" timeLoss="5.12" rerouteNo="0" devices="tripinfo_f_wtw.3" vType="moto" speedFactor="0.90" vaporized=""/>
    <tripinfo id="f_wtw.4" depart="32.00" departLane="wb1_1" departPos="5.10" departPosLat="0.00" departSpeed="0.00" departDelay="0.00" arrival="71.00" arrivalLane="wb2_1" arrivalPos="199.61" arrivalPosLat="-1.20" arrivalSpeed="11.19" duration="39.00" routeLength="423.31" waitingTime="0.00" waitingCount="0" stopTime="0.00" timeLoss="4.63" rerouteNo="0" devices="tripinfo_f_wtw.4" vType="car" speedFactor="0.90" vaporized=""/>
    <tripinfo id="f_wtw.5" depart="40.00" departLane="wb1_1" departPos="2.30" departPosLat="0.00" departSpeed="0.00" departDelay="0.00" arrival="73.00" arrivalLane="wb2_1" arrivalPos="199.61" arrivalPosLat="0.00" arrivalSpeed="14.12" duration="33.00" routeLength="426.11" waitingTime="0.00" waitingCount="0" stopTime="0.00" timeLoss="3.67" rerouteNo="0" devices="tripinfo_f_wtw.5" vType="moto" speedFactor="1.06" vaporized=""/>
    <tripinfo id="f_wtn.3" depart="40.00" departLane="wb1_2" departPos="2.30" departPosLat="0.00" departSpeed="0.00" departDelay="0.00" arrival="75.00" arrivalLane="nb2_1" arrivalPos="177.96" arrivalPosLat="-0.30" arrivalSpeed="13.31" duration="35.00" routeLength="386.29" waitingTime="0.00" waitingCount="0" stopTime="0.00" timeLoss="6.73" rerouteNo="0" devices="tripinfo_f_wtn.3" vType="moto" speedFactor="1.02" vaporized=""/>
    <tripinfo id="f_nte.0" depart="0.00" departLane="nb1_0" departPos="5.10" departPosLat="0.00" departSpeed="0.00" departDelay="0.00" arrival="77.00" arrivalLane="eb2_1" arrivalPos="201.60" arrivalPosLat="0.00" arrivalSpeed="14.66" duration="77.00" routeLength="367.00" waitingTime="44.00" waitingCount="1" stopTime="0.00" timeLoss="52.19" rerouteNo="0" devices="tripinfo_f_nte.0" vType="car" speedFactor="1.09" vaporized=""/>
    <tripinfo id="f_ntw.0" depart="0.00" departLane="nb1_1" departPos="2.30" departPosLat="0.00" departSpeed="0.00" departDelay="0.00" arrival="77.00" arrivalLane="wb2_2" arrivalPos="199.61" arrivalPosLat="0.95" arrivalSpeed="14.32" duration="77.00" routeLength="383.30" waitingTime="44.00" waitingCount="1" stopTime="0.00" timeLoss="51.44" rerouteNo="0" devices="tripinfo_f_ntw.0" vType="moto" speedFactor="1.12" vaporized=""/>
    <tripinfo id="f_ntn.3" depart="24.00" departLane="nb1_2" departPos="2.30" departPosLat="0.00" departSpeed="0.00" departDelay="0.00" arrival="78.00" arrivalLane="nb2_2" arrivalPos="177.96" arrivalPosLat="0.95" arrivalSpeed="12.60" duration="54.00" routeLength="364.35" waitingTime="20.00" waitingCount="1" stopTime="0.00" timeLoss="28.15" rerouteNo="0" devices="tripinfo_f_ntn.3" vType="moto" speedFactor="1.04" vaporized=""/>
    <tripinfo id="f_ntn.0" depart="0.00" departLane="nb1_2" departPos="5.10" departPosLat="0.00" departSpeed="0.00" departDelay="0.00" arrival="79.00" arrivalLane="nb2_1" arrivalPos="177.96" arrivalPosLat="0.00" arrivalSpeed="12.60" duration="79.00" routeLength="361.55" waitingTime="39.00" waitingCount="2" stopTime="0.00" timeLoss="50.18" rerouteNo="0" devices="tripinfo_f_ntn.0" vType="car" speedFactor="0.92" vaporized=""/>
    <tripinfo id="f_ntn.1" depart="8.00" departLane="nb1_1" departPos="5.10" departPosLat="0.00" departSpeed="0.00" departDelay="0.00" arrival="80.00" arrivalLane="nb2_2" arrivalPos="177.96" arrivalPosLat="-0.47" arrivalSpeed="11.86" duration="72.00" routeLength="361.55" waitingTime="33.00" waitingCount="1" stopTime="0.00" timeLoss="42.45" rerouteNo="0" devices="tripinfo_f_ntn.1" vType="car" speedFactor="0.89" vaporized=""/>
    <tripinfo id="f_nte.1" depart="14.00" departLane="nb1_1" departPos="2.30" departPosLat="0.00" departSpeed="0.00" departDelay="0.67" arrival="80.00" arrivalLane="eb2_1" arrivalPos="201.60" arrivalPosLat="-0.15" arrivalSpeed="15.62" duration="66.00" routeLength="369.80" waitingTime="30.00" waitingCount="1" stopTime="0.00" timeLoss="40.68" rerouteNo="0" devices="tripinfo_f_nte.1" vType="moto" speedFactor="1.13" vaporized=""/>
    <tripinfo id="f_ntw.1" depart="20.00" departLane="nb1_1" departPos="2.30" departPosLat="0.00" departSpeed="0.00" departDelay="0.00" arrival="80.00" arrivalLane="wb2_2" arrivalPos="199.61" arrivalPosLat="1.10" arrivalSpeed="12.32" duration="60.00" routeLength="383.30" waitingTime="24.00" waitingCount="2" stopTime="0.00" timeLoss="34.44" rerouteNo="0" devices="tripinfo_f_ntw.1" vType="moto" speedFactor="1.10" vaporized=""/>
    <tripinfo id="f_ntn.4" depart="32.00" departLane="nb1_1" departPos="5.10" departPosLat="0.00" departSpeed="0.00" departDelay="0.00" arrival="80.00" arrivalLane="nb2_1" arrivalPos="177.96" arrivalPosLat="0.00" arrivalSpeed="12.92" duration="48.00" routeLength="361.55" waitingTime="12.00" waitingCount="1" stopTime="0.00" timeLoss="22.02" rerouteNo="0" devices="tripinfo_f_ntn.4" vType="car" speedFactor="1.00" vaporized=""/>
    <tripinfo id="f_ntn.2" depart="16.00" departLane="nb1_2" departPos="2.30" departPosLat="0.00" departSpeed="0.00" departDelay="0.00" arrival="81.00" arrivalLane="nb2_2" arrivalPos="177.96" arrivalPosLat="1.10" arrivalSpeed="11.51" duration="65.00" routeLength="364.35" waitingTime="29.00" waitingCount="1" stopTime="0.00" timeLoss="38.51" rerouteNo="0" devices="tripinfo_f_ntn.2" vType="moto" speedFactor="0.99" vaporized=""/>
    <tripinfo id="f_nte.3" depart="40.00" departLane="nb1_1" departPos="2.30" departPosLat="0.00" departSpeed="0.00" departDelay="0.00" arrival="82.00" arrivalLane="eb2_1" arrivalPos="201.60" arrivalPosLat="-1.15" arrivalSpeed="13.75" duration="42.00" routeLength="369.80" waitingTime="7.00" waitingCount="1" stopTime="0.00" timeLoss="17.56" rerouteNo="0" devices="tripinfo_f_nte.3" vType="moto" speedFactor="1.12" vaporized=""/>
    <tripinfo id="f_ntn.5" depart="40.00" departLane="nb1_0" departPos="5.10" departPosLat="0.00" departSpeed="0.00" departDelay="0.00" arrival="82.00" arrivalLane="nb2_1" arrivalPos="177.96" arrivalPosLat="0.00" arrivalSpeed="12.60" duration="42.00" routeLength="361.55" waitingTime="4.00" waitingCount="1" stopTime="0.00" timeLoss="15.49" rerouteNo="0" devices="tripinfo_f_ntn.5" vType="car" speedFactor="1.00" vaporized=""/>
    <tripinfo id="f_ntn.6" depart="48.00" departLane="nb1_2" departPos="2.30" departPosLat="0.00" departSpeed="0.00" departDelay="0.00" arrival="83.00" arrivalLane="nb2_1" arrivalPos="177.96" arrivalPosLat="1.35" arrivalSpeed="11.79" duration="35.00" routeLength="364.35" waitingTime="0.00" waitingCount="0" stopTime="0.00" timeLoss="9.25" rerouteNo="0" devices="tripinfo_f_ntn.6" vType="moto" speedFactor="1.03" vaporized=""/>
    <tripinfo id="f_ntw.2" depart="42.00" departLane="nb1_1" departPos="5.10" departPosLat="0.00" departSpeed="0.00" departDelay="2.00" arrival="84.00" arrivalLane="wb2_2" arrivalPos="199.61" arrivalPosLat="0.00" arrivalSpeed="13.34" duration="42.00" routeLength="380.50" waitingTime="3.00" waitingCount="1" stopTime="0.00" timeLoss="13.33" rerouteNo="0" devices="tripinfo_f_ntw.2" vType="car" speedFactor="0.99" vaporized=""/>
    <tripinfo id="f_nte.2" depart="27.00" departLane="nb1_1" departPos="5.10" departPosLat="0.00" departSpeed="0.00" departDelay="0.33" arrival="85.00" arrivalLane="eb2_0" arrivalPos="201.60" arrivalPosLat="0.00" arrivalSpeed="11.48" duration="58.00" routeLength="367.00" waitingTime="17.00" waitingCount="1" stopTime="0.00" timeLoss="26.78" rerouteNo="0" devices="tripinfo_f_nte.2" vType="car" speedFactor="0.88" vaporized=""/>
    <tripinfo id="f_nte.4" depart="54.00" departLane="nb1_1" departPos="2.30" departPosLat="0.00" departSpeed="0.00" departDelay="0.67" arrival="87.00" arrivalLane="eb2_1" arrivalPos="201.60" arrivalPosLat="-1.15" arrivalSpeed="13.45" duration="33.00" routeLength="369.80" waitingTime="0.00" waitingCount="0" stopTime="0.00" timeLoss="5.64" rerouteNo="0" devices="tripinfo_f_nte.4" vType="moto" speedFactor="1.02" vaporized=""/>
    <tripinfo id="f_ntn.7" depart="56.00" departLane="nb1_2" departPos="2.30" departPosLat="0.00" departSpeed="0.00" departDelay="0.00" arrival="87.00" arrivalLane="nb2_2" arrivalPos="177.96" arrivalPosLat="0.10" arrivalSpeed="12.94" duration="31.00" routeLength="364.35" waitingTime="0.00" waitingCount="0" stopTime="0.00" timeLoss="4.84" rerouteNo="0" devices="tripinfo_f_ntn.7" vType="moto" speedFactor="1.01" vaporized=""/>
    <tripinfo id="f_ntw.3" depart="60.00" departLane="nb1_1" departPos="2.30" departPosLat="0.00" departSpeed="0.00" departDelay="0.00" arrival="91.00" arrivalLane="wb2_2" arrivalPos="199.61" arrivalPosLat="-0.20" arrivalSpeed="14.03" duration="31.00" routeLength="383.30" waitingTime="0.00" waitingCount="0" stopTime="0.00" timeLoss="3.89" rerouteNo="0" devices="tripinfo_f_ntw.3" vType="moto" speedFactor="1.06" vaporized=""/>
    <tripinfo id="f_ntn.8" depart="64.00" departLane="nb1_1" departPos="5.10" departPosLat="0.00" departSpeed="0.00" departDelay="0.00" arrival="92.00" arrivalLane="nb2_1" arrivalPos="177.96" arrivalPosLat="0.00" arrivalSpeed="15.17" duration="28.00" routeLength="361.55" waitingTime="0.00" waitingCount="0" stopTime="0.00" timeLoss="4.28" rerouteNo="0" devices="tripinfo_f_ntn.8" vType="car" speedFactor="1.10" vaporized=""/>
    <tripinfo id="f_nte.5" depart="67.00" departLane="nb1_0" departPos="2.30" departPosLat="0.00" departSpeed="0.00" departDelay="0.34" arrival="98.00" arrivalLane="eb2_1" arrivalPos="201.60" arrivalPosLat="-0.20" arrivalSpeed="13.55" duration="31.00" routeLength="369.80" waitingTime="0.00" waitingCount="0" stopTime="0.00" timeLoss="5.06" rerouteNo="0" devices="tripinfo_f_nte.5" vType="moto" speedFactor="1.07" vaporized=""/>
    <tripinfo id="f_ntn.9" depart="72.00" departLane="nb1_2" departPos="5.10" departPosLat="0.00" departSpeed="0.00" departDelay="0.00" arrival="101.00" arrivalLane="nb2_1" arrivalPos="177.96" arrivalPosLat="0.00" arrivalSpeed="13.77" duration="29.00" routeLength="361.55" waitingTime="0.00" waitingCount="0" stopTime="0.00" timeLoss="4.25" rerouteNo="0" devices="tripinfo_f_ntn.9" vType="car" speedFactor="1.06" vaporized=""/>
    <tripinfo id="f_sts.1" depart="8.00" departLane="sb1_2" departPos="2.30" departPosLat="0.00" departSpeed="0.00" departDelay="0.00" arrival="105.00" arrivalLane="sb2_2" arrivalPos="161.47" arrivalPosLat="0.70" arrivalSpeed="12.32" duration="97.00" routeLength="364.36" waitingTime="64.00" waitingCount="1" stopTime="0.00" timeLoss="70.71" rerouteNo="0" devices="tripinfo_f_sts.1" vType="moto" speedFactor="1.01" vaporized=""/>
    <tripinfo id="f_sts.0" depart="1.00" departLane="sb1_0" departPos="5.10" departPosLat="0.00" departSpeed="0.00" departDelay="1.00" arrival="107.00" arrivalLane="sb2_1" arrivalPos="161.47" arrivalPosLat="0.00" arrivalSpeed="11.86" duration="106.00" routeLength="361.56" waitingTime="70.00" waitingCount="1" stopTime="0.00" timeLoss="77.60" rerouteNo="0" devices="tripinfo_f_sts.0" vType="car" speedFactor="0.93" vaporized=""/>
    <tripinfo id="f_stw.0" depart="1.00" departLane="sb1_2" departPos="2.30" departPosLat="0.00" departSpeed="0.00" departDelay="1.00" arrival="108.00" arrivalLane="wb2_0" arrivalPos="199.61" arrivalPosLat="-0.40" arrivalSpeed="13.36" duration="107.00" routeLength="384.32" waitingTime="67.00" waitingCount="1" stopTime="0.00" timeLoss="78.98" rerouteNo="0" devices="tripinfo_f_stw.0" vType="moto" speedFactor="1.04" vaporized=""/>
    <tripinfo id="f_stw.4" depart="54.00" departLane="sb1_0" departPos="2.30" departPosLat="0.00" departSpeed="0.00" departDelay="0.67" arrival="109.00" arrivalLane="wb2_0" arrivalPos="199.61" arrivalPosLat="-0.40" arrivalSpeed="13.86" duration="55.00" routeLength="384.32" waitingTime="20.00" waitingCount="1" stopTime="0.00" timeLoss="28.34" rerouteNo="0" devices="tripinfo_f_stw.4" vType="moto" speedFactor="1.08" vaporized=""/>
    <tripinfo id="f_sts.2" depart="16.00" departLane="sb1_0" departPos="2.30" departPosLat="0.00" departSpeed="0.00" departDelay="0.00" arrival="110.00" arrivalLane="sb2_1" arrivalPos="161.47" arrivalPosLat="-0.20" arrivalSpeed="12.03" duration="94.00" routeLength="364.36" waitingTime="58.00" waitingCount="1" stopTime="0.00" timeLoss="66.06" rerouteNo="0" devices="tripinfo_f_sts.2" vType="moto" speedFactor="0.97" vaporized=""/>
    <tripinfo id="f_stw.2" depart="27.00" departLane="sb1_1" departPos="2.30" departPosLat="0.00" departSpeed="0.00" departDelay="0.33" arrival="110.00" arrivalLane="wb2_1" arrivalPos="199.61" arrivalPosLat="0.45" arrivalSpeed="12.88" duration="83.00" routeLength="384.32" waitingTime="46.00" waitingCount="1" stopTime="0.00" timeLoss="56.27" rerouteNo="0" devices="tripinfo_f_stw.2" vType="moto" speedFactor="1.06" vaporized=""/>
    <tripinfo id="f_stw.1" depart="14.00" departLane="sb1_2" departPos="2.30" departPosLat="0.00" departSpeed="0.00" departDelay="0.67" arrival="111.00" arrivalLane="wb2_1" arrivalPos="199.61" arrivalPosLat="-1.15" arrivalSpeed="9.74" duration="97.00" routeLength="384.32" waitingTime="57.00" waitingCount="1" stopTime="0.00" timeLoss="65.04" rerouteNo="0" devices="tripinfo_f_stw.1" vType="moto" speedFactor="0.89" vaporized=""/>
    <tripinfo id="f_sts.5" depart="41.00" departLane="sb1_2" departPos="2.30" departPosLat="0.00" departSpeed="0.00" departDelay="1.00" arrival="111.00" arrivalLane="sb2_2" arrivalPos="161.47" arrivalPosLat="-1.40" arrivalSpeed="10.93" duration="70.00" routeLength="364.36" waitingTime="29.00" waitingCount="1" stopTime="0.00" timeLoss="41.03" rerouteNo="0" devices="tripinfo_f_sts.5" vType="moto" speedFactor="0.91" vaporized=""/>
    <tripinfo id="f_sts.4" depart="32.00" departLane="sb1_2" departPos="5.10" departPosLat="0.00" departSpeed="0.00" departDelay="0.00" arrival="112.00" arrivalLane="sb2_1" arrivalPos="161.47" arrivalPosLat="0.00" arrivalSpeed="15.13" duration="80.00" routeLength="361.56" waitingTime="39.00" waitingCount="2" stopTime="0.00" timeLoss="55.39" rerouteNo="0" devices="tripinfo_f_sts.4" vType="car" speedFactor="1.10" vaporized=""/>
    <tripinfo id="f_stw.5" depart="67.00" departLane="sb1_2" departPos="5.10" departPosLat="0.00" departSpeed="0.00" departDelay="0.34" arrival="112.00" arrivalLane="wb2_0" arrivalPos="199.61" arrivalPosLat="0.00" arrivalSpeed="13.98" duration="45.00" routeLength="381.52" waitingTime="7.00" waitingCount="1" stopTime="0.00" timeLoss="18.97" rerouteNo="0" devices="tripinfo_f_stw.5" vType="car" speedFactor="1.08" vaporized=""/>
    <tripinfo id="f_sts.7" depart="56.00" departLane="sb1_1" departPos="5.10" departPosLat="0.00" departSpeed="0.00" departDelay="0.00" arrival="113.00" arrivalLane="sb2_1" arrivalPos="161.47" arrivalPosLat="0.00" arrivalSpeed="11.96" duration="57.00" routeLength="361.56" waitingTime="16.00" waitingCount="1" stopTime="0.00" timeLoss="29.15" rerouteNo="0" devices="tripinfo_f_sts.7" vType="car" speedFactor="0.94" vaporized=""/>
    <tripinfo id="f_sts.9" depart="72.00" departLane="sb1_0" departPos="2.30" departPosLat="0.00" departSpeed="0.00" departDelay="0.00" arrival="113.00" arrivalLane="sb2_1" arrivalPos="161.47" arrivalPosLat="1.45" arrivalSpeed="14.72" duration="41.00" routeLength="364.36" waitingTime="9.00" waitingCount="1" stopTime="0.00" timeLoss="19.93" rerouteNo="0" devices="tripinfo_f_sts.9" vType="moto" speedFactor="1.25" vaporized=""/>
    <tripinfo id="f_ste.0" depart="0.00" departLane="sb1_1" departPos="2.30" departPosLat="0.00" departSpeed="0.00" departDelay="0.00" arrival="114.00" arrivalLane="eb2_2" arrivalPos="201.60" arrivalPosLat="-1.00" arrivalSpeed="10.58" duration="114.00" routeLength="401.79" waitingTime="71.00" waitingCount="1" stopTime="0.00" timeLoss="80.43" rerouteNo="0" devices="tripinfo_f_ste.0" vType="moto" speedFactor="0.90" vaporized=""/>
    <tripinfo id="f_sts.3" depart="24.00" departLane="sb1_2" departPos="5.10" departPosLat="0.00" departSpeed="0.00" departDelay="0.00" arrival="114.00" arrivalLane="sb2_2" arrivalPos="161.47" arrivalPosLat="0.00" arrivalSpeed="10.56" duration="90.00" routeLength="361.56" waitingTime="47.00" waitingCount="1" stopTime="0.00" timeLoss="55.84" rerouteNo="0" devices="tripinfo_f_sts.3" vType="car" speedFactor="0.77" vaporized=""/>
    <tripinfo id="f_stw.3" depart="40.00" departLane="sb1_2" departPos="2.30" departPosLat="0.00" departSpeed="0.00" departDelay="0.00" arrival="115.00" arrivalLane="wb2_1" arrivalPos="199.61" arrivalPosLat="-1.15" arrivalSpeed="12.50" duration="75.00" routeLength="384.32" waitingTime="33.00" waitingCount="1" stopTime="0.00" timeLoss="44.34" rerouteNo="0" devices="tripinfo_f_stw.3" vType="moto" speedFactor="0.95" vaporized=""/>
    <tripinfo id="f_sts.8" depart="64.00" departLane="sb1_1" departPos="5.10" departPosLat="0.00" departSpeed="0.00" departDelay="0.00" arrival="115.00" arrivalLane="sb2_1" arrivalPos="161.47" arrivalPosLat="0.00" arrivalSpeed="15.05" duration="51.00" routeLength="361.56" waitingTime="13.00" waitingCount="1" stopTime="0.00" timeLoss="27.43" rerouteNo="0" devices="tripinfo_f_sts.8" vType="car" speedFactor="1.14" vaporized=""/>
    <tripinfo id="f_stw.6" depart="80.00" departLane="sb1_2" departPos="5.10" departPosLat="0.00" departSpeed="0.00" departDelay="0.00" arrival="115.00" arrivalLane="wb2_0" arrivalPos="199.61" arrivalPosLat="0.00" arrivalSpeed="14.20" duration="35.00" routeLength="381.52" waitingTime="0.00" waitingCount="0" stopTime="0.00" timeLoss="7.93" rerouteNo="0" devices="tripinfo_f_stw.6" vType="car" speedFactor="1.03" vaporized=""/>
    <tripinfo id="f_ste.1" depart="20.00" departLane="sb1_0" departPos="5.10" departPosLat="0.00" departSpeed="0.00" departDelay="0.00" arrival="116.00" arrivalLane="eb2_2" arrivalPos="201.60" arrivalPosLat="-1.20" arrivalSpeed="11.23" duration="96.00" routeLength="398.99" waitingTime="50.00" waitingCount="1" stopTime="0.00" timeLoss="60.05" rerouteNo="0" devices="tripinfo_f_ste.1" vType="car" speedFactor="0.83" vaporized=""/>
    <tripinfo id="f_sts.6" depart="48.00" departLane="sb1_2" departPos="2.30" departPosLat="0.00" departSpeed="0.00" departDelay="0.00" arrival="116.00" arrivalLane="sb2_2" arrivalPos="161.47" arrivalPosLat="-0.05" arrivalSpeed="11.92" duration="68.00" routeLength="364.36" waitingTime="26.00" waitingCount="1" stopTime="0.00" timeLoss="38.82" rerouteNo="0" devices="tripinfo_f_sts.6" vType="moto" speedFactor="0.92" vaporized=""/>
    <tripinfo id="f_sts.10" depart="81.00" departLane="sb1_0" departPos="5.10" departPosLat="0.00" departSpeed="0.00" departDelay="1.00" arrival="117.00" arrivalLane="sb2_1" arrivalPos="161.47" arrivalPosLat="0.00" arrivalSpeed="12.94" duration="36.00" routeLength="361.56" waitingTime="0.00" waitingCount="0" stopTime="0.00" timeLoss="7.46" rerouteNo="0" devices="tripinfo_f_sts.10" vType="car" speedFactor="0.94" vaporized=""/>
    <tripinfo id="f_sts.11" depart="88.00" departLane="sb1_0" departPos="5.10" departPosLat="0.00" departSpeed="0.00" departDelay="0.00" arrival="118.00" arrivalLane="sb2_1" arrivalPos="161.47" arrivalPosLat="0.00" arrivalSpeed="13.02" duration="30.00" routeLength="361.56" waitingTime="0.00" waitingCount="0" stopTime="0.00" timeLoss="6.18" rerouteNo="0" devices="tripinfo_f_sts.11" vType="car" speedFactor="1.10" vaporized=""/>
    <tripinfo id="f_ste.2" depart="40.00" departLane="sb1_0" departPos="2.30" departPosLat="0.00" departSpeed="0.00" departDelay="0.00" arrival="119.00" arrivalLane="eb2_2" arrivalPos="201.60" arrivalPosLat="-1.15" arrivalSpeed="11.55" duration="79.00" routeLength="401.79" waitingTime="29.00" waitingCount="2" stopTime="0.00" timeLoss="48.14" rerouteNo="0" devices="tripinfo_f_ste.2" vType="moto" speedFactor="0.96" vaporized=""/>
    <tripinfo id="f_ste.3" depart="60.00" departLane="sb1_0" departPos="2.30" departPosLat="0.00" departSpeed="0.00" departDelay="0.00" arrival="122.00" arrivalLane="eb2_2" arrivalPos="201.60" arrivalPosLat="0.60" arrivalSpeed="10.22" duration="62.00" routeLength="401.79" waitingTime="14.00" waitingCount="1" stopTime="0.00" timeLoss="27.21" rerouteNo="0" devices="tripinfo_f_ste.3" vType="moto" speedFactor="0.86" vaporized=""/>
    <tripinfo id="f_ste.4" depart="80.00" departLane="sb1_1" departPos="5.10" departPosLat="0.00" departSpeed="0.00" departDelay="0.00" arrival="123.00" arrivalLane="eb2_2" arrivalPos="201.60" arrivalPosLat="-0.40" arrivalSpeed="12.87" duration="43.00" routeLength="398.99" waitingTime="1.00" waitingCount="1" stopTime="0.00" timeLoss="12.47" rerouteNo="0" devices="tripinfo_f_ste.4" vType="car" speedFactor="0.98" vaporized=""/>
    <tripinfo id="f_sts.12" depart="96.00" departLane="sb1_0" departPos="2.30" departPosLat="0.00" departSpeed="0.00" departDelay="0.00" arrival="125.00" arrivalLane="sb2_1" arrivalPos="161.47" arrivalPosLat="-0.20" arrivalSpeed="14.42" duration="29.00" routeLength="364.36" waitingTime="0.00" waitingCount="0" stopTime="0.00" timeLoss="3.83" rerouteNo="0" devices="tripinfo_f_sts.12" vType="moto" speedFactor="1.06" vaporized=""/>
    <tripinfo id="f_ste.5" depart="100.00" departLane="sb1_2" departPos="2.30" departPosLat="0.00" departSpeed="0.00" departDelay="0.00" arrival="128.00" arrivalLane="eb2_2" arrivalPos="201.60" arrivalPosLat="0.35" arrivalSpeed="15.83" duration="28.00" routeLength="401.79" waitingTime="0.00" waitingCount="0" stopTime="0.00" timeLoss="3.69" rerouteNo="0" devices="tripinfo_f_ste.5" vType="moto" speedFactor="1.21" vaporized=""/>
    <tripinfo id="f_stw.7" depart="94.00" departLane="sb1_1" departPos="5.10" departPosLat="0.00" departSpeed="0.00" departDelay="0.67" arrival="130.00" arrivalLane="wb2_0" arrivalPos="199.61" arrivalPosLat="0.00" arrivalSpeed="13.43" duration="36.00" routeLength="381.52" waitingTime="0.00" waitingCount="0" stopTime="0.00" timeLoss="8.46" rerouteNo="0" devices="tripinfo_f_stw.7" vType="car" speedFactor="1.04" vaporized=""/>
    <tripinfo id="f_ets.1" depart="14.00" departLane="eb1_1" departPos="2.30" departPosLat="0.00" departSpeed="0.00" departDelay="0.67" arrival="135.00" arrivalLane="sb2_0" arrivalPos="161.47" arrivalPosLat="-0.40" arrivalSpeed="11.54" duration="121.00" routeLength="367.83" waitingTime="87.00" waitingCount="1" stopTime="0.00" timeLoss="94.19" rerouteNo="0" devices="tripinfo_f_ets.1" vType="moto" speedFactor="1.03" vaporized=""/>
    <tripinfo id="f_ets.3" depart="41.00" departLane="eb1_2" departPos="2.30" departPosLat="0.00" departSpeed="0.00" departDelay="1.00" arrival="135.00" arrivalLane="sb2_1" arrivalPos="161.47" arrivalPosLat="-1.05" arrivalSpeed="12.97" duration="94.00" routeLength="367.83" waitingTime="57.00" waitingCount="1" stopTime="0.00" timeLoss="66.77" rerouteNo="0" devices="tripinfo_f_ets.3" vType="moto" speedFactor="1.00" vaporized=""/>
    <tripinfo id="f_ets.2" depart="27.00" departLane="eb1_2" departPos="5.10" departPosLat="0.00" departSpeed="0.00" departDelay="0.33" arrival="137.00" arrivalLane="sb2_0" arrivalPos="161.47" arrivalPosLat="0.00" arrivalSpeed="13.83" duration="110.00" routeLength="365.03" waitingTime="74.00" waitingCount="1" stopTime="0.00" timeLoss="83.03" rerouteNo="0" devices="tripinfo_f_ets.2" vType="car" speedFactor="1.02" vaporized=""/>
    <tripinfo id="f_ete.3" depart="24.00" departLane="eb1_0" departPos="2.30" departPosLat="0.00" departSpeed="0.00" departDelay="0.00" arrival="138.00" arrivalLane="eb2_2" arrivalPos="201.60" arrivalPosLat="-1.15" arrivalSpeed="14.54" duration="114.00" routeLength="426.11" waitingTime="78.00" waitingCount="1" stopTime="0.00" timeLoss="84.43" rerouteNo="0" devices="tripinfo_f_ete.3" vType="moto" speedFactor="1.07" vaporized=""/>